Unnamed: 0,Composition,MaterialId,Reduced Formula,Elements,NSites,Volume,Density,Point Group,Space Group,Space Group Number,Crystal System,Corrected Energy,Formation Energy Per Atom,Decomposition Energy Per Atom,Dimensionality Cheon,Bandgap,Is Train,Decomposition Energy Per Atom All,Decomposition Energy Per Atom Relative,Decomposition Energy Per Atom MP,Decomposition Energy Per Atom MP OQMD
273952,Ca1Na1Rh12Si7,b63c8faa09,NaCaSi7Rh12,"['Na', 'Si', 'Ca', 'Rh']",21,315.3479,7.8698,-6,P-6,174,hexagonal,-146.1546,-0.7846,-0.0413,,0.0039,,-0.0,,-0.0411,-0.0285
274573,Ir8Na5Pt11Si12,b6a698570d,Na5Si12Ir8Pt11,"['Na', 'Si', 'Ir', 'Pt']",36,575.2729,11.9376,mm2,Amm2,38,orthorhombic,-233.0429,-0.6622,-0.0681,,0.0068,,0.0,,-0.0677,-0.0339
275086,Ga4Na4Se12Si2,b70341af50,Na2Ga2SiSe6,"['Na', 'Si', 'Ga', 'Se']",22,602.9069,3.7858,m,Cc,9,monoclinic,-92.6575,-1.0198,-0.0086,,,,0.0,,-0.0086,-0.0076
275549,Au20Ba1Na3Si8,b7502e7447,BaNa3(Si2Au5)4,"['Na', 'Si', 'Ba', 'Au']",32,639.2021,11.3533,m,Pm,6,monoclinic,-122.1834,-0.2318,-0.0214,,0.0189,,0.0,,-0.0214,-0.0127
276822,Cl18Na4Si1Zr6,b826c74c19,Na4Zr6SiCl18,"['Na', 'Si', 'Cl', 'Zr']",29,774.4958,2.7991,-1,P-1,2,triclinic,-156.0985,-2.0967,-0.0252,,,,0.0,,-0.0252,-0.0246
278172,Na8Pd9Pt3Si4,b90eba4bf4,Na8Si4(Pd3Pt)3,"['Na', 'Si', 'Pd', 'Pt']",24,398.0431,7.6731,1,P1,1,triclinic,-109.1843,-0.5015,-0.0734,,,,0.0,,-0.0734,-0.0728
278931,Cu18La1Na1Si8,b9975de61f,NaLa(Cu9Si4)2,"['Na', 'Si', 'Cu', 'La']",28,381.688,6.6581,422,I422,97,tetragonal,-128.1328,-0.1674,-0.0239,,0.0056,,0.0,,-0.0237,-0.0228
279635,As4Ho1Na1Rh12Si3,ba09e9c81d,NaHoSi3(AsRh3)4,"['Na', 'Si', 'As', 'Rh', 'Ho']",21,327.1158,9.1715,3,P3,143,trigonal,-144.3914,-0.7239,-0.0394,,0.0246,,0.0,,-0.0394,-0.0335
281426,Hf3Na20P12Si1,bb41ba303f,Na20Hf3SiP12,"['Na', 'Si', 'P', 'Hf']",36,818.3074,2.8309,1,P1,1,triclinic,-145.8363,-0.5314,-0.0149,,0.9979,,0.0,,-0.0149,-0.0133
281591,Na1Ru8Si24Tm5,bb5ecd1564,NaTm5(Si3Ru)8,"['Na', 'Si', 'Ru', 'Tm']",38,609.4968,6.4032,2,C2,5,monoclinic,-250.2,-0.5815,-0.0324,,0.0057,,0.0,,-0.0323,-0.0321
282216,Ir6Na1Si14Y1,bbc09d1059,NaY(Si7Ir3)2,"['Na', 'Si', 'Y', 'Ir']",22,338.173,8.1433,-3,R-3,148,trigonal,-149.9776,-0.6002,-0.0329,,0.0098,,0.0,,-0.0327,-0.0325
283725,Er4Na12O60Si24,bcb2a875fd,Na3Er(Si2O5)3,"['O', 'Na', 'Si', 'Er']",100,1421.3918,3.0128,mmm,Cmce,64,orthorhombic,-778.4819,-3.172,-0.0056,,,,0.0,,-0.0056,-0.0056
287313,As7Na20P5Si4,bf08cfacee,Na20Si4As7P5,"['Na', 'Si', 'P', 'As']",36,817.5814,2.5418,1,P1,1,triclinic,-123.1679,-0.426,-0.0094,,0.9717,,0.0,,-0.0094,-0.0079
288677,Ac7N12Na1Si4,bff1588e3b,NaAc7(SiN3)4,"['N', 'Na', 'Si', 'Ac']",24,387.8922,8.1013,m,Cm,8,monoclinic,-183.7099,-1.325,-0.0932,,0.0062,,-0.0,,-0.0932,-0.0916
289146,F2Na6O18Pb1Si6Sn1,c04211f0c7,Na6Si6SnPb(O9F)2,"['O', 'F', 'Na', 'Si', 'Sn', 'Pb']",34,464.5707,3.4255,2,C2,5,monoclinic,-235.4569,-2.7753,-0.0036,,,,0.0,,-0.0036,-0.0033
289397,Al1Ga3Na4Se12Si2,c06c2b2f34,Na4AlGa3(SiSe6)2,"['Na', 'Al', 'Si', 'Ga', 'Se']",22,610.7442,3.621,1,P1,1,triclinic,-94.0766,-1.0525,-0.0083,,,,0.0,,-0.0083,-0.0062
289455,Na2Pd21Si6,c074f9e8fb,Na2(Si2Pd7)3,"['Na', 'Si', 'Pd']",29,458.03,8.8797,m-3m,Fm-3m,225,cubic,-159.5859,-0.5383,-0.031,,0.0027,,0.0,,-0.031,-0.0093
290984,Dy4Ir19Na1P6Si6,c17814a315,NaDy4Si6P6Ir19,"['Na', 'Si', 'P', 'Dy', 'Ir']",36,559.9427,13.8772,m,Pm,6,monoclinic,-283.985,-0.8687,-0.1108,,0.0155,,0.0,,-0.1108,-0.093
290991,Ir19Na1Si12Y4,c1790a6ed2,NaY4Si12Ir19,"['Na', 'Si', 'Y', 'Ir']",36,568.6275,12.755,mm2,Amm2,38,orthorhombic,-292.276,-0.8904,-0.1101,,0.0034,,0.0,,-0.11,-0.1017
291190,Na1Pr2Pt6Si10Tm1,c19ea9effb,NaPr2Tm(Si5Pt3)2,"['Na', 'Si', 'Pr', 'Tm', 'Pt']",20,351.9686,9.0823,m,Cm,8,monoclinic,-122.8466,-0.8404,-0.0344,,0.0051,,0.0,,-0.0341,-0.0071
291616,Dy4Ir19Na1P2Si10,c1f1a006e2,NaDy4Si10P2Ir19,"['Na', 'Si', 'P', 'Dy', 'Ir']",36,563.6501,13.7519,mm2,Amm2,38,orthorhombic,-285.3409,-0.905,-0.1315,,,,0.0,,-0.1315,-0.1021
292587,Na4Rb4Si8Te20,c29b9c2ac1,RbNaSi2Te5,"['Na', 'Si', 'Rb', 'Te']",36,1420.8066,3.7522,mmm,Cmcm,63,orthorhombic,-140.2429,-0.6873,-0.0622,,,,0.0,,-0.0622,-0.0161
293445,Na12Pt8Si8,c3313ea35e,Na3(SiPt)2,"['Na', 'Si', 'Pt']",28,595.3958,5.7487,mmm,Pbcm,57,orthorhombic,-120.8334,-0.464,-0.0845,,0.0091,,-0.0,,-0.0826,-0.0044
294666,Ir10Na1Si10Sr4,c3fc8e91c2,NaSr4(SiIr)10,"['Na', 'Si', 'Sr', 'Ir']",25,445.3283,9.6072,4/m,I4/m,87,tetragonal,-171.1775,-0.8184,-0.2572,,0.0073,,0.0,,-0.257,-0.0245
294815,Cs4Na4Se8Si2,c414db2011,Cs2Na2SiSe4,"['Na', 'Si', 'Se', 'Cs']",18,681.3096,3.1963,4/mmm,P4_2/mcm,132,tetragonal,-69.9806,-1.2384,-0.0064,,2.0315,,0.0,,-0.0064,-0.0059
295376,Fe3Li4Na8O60Si24V1,c46d42c01b,Na8Li4VFe3(Si2O5)12,"['Li', 'O', 'Na', 'Si', 'V', 'Fe']",100,1278.7234,2.6805,2,C2,5,monoclinic,-776.5131,-2.9672,-0.0028,,,,0.0,,-0.0028,-0.001
296048,Ir16Na5Rh3Si12,c4dfe64e49,Na5Si12Ir16Rh3,"['Na', 'Si', 'Rh', 'Ir']",36,564.1721,11.2911,-6m2,P-62m,189,hexagonal,-256.511,-0.5913,-0.0757,,0.0026,,0.0,,-0.0751,-0.0676
296227,Ge1Na8P12Rb12Si3,c4fca9e576,Rb12Na8Si3GeP12,"['Na', 'Si', 'P', 'Ge', 'Rb']",36,1020.6364,2.8278,2,C2,5,monoclinic,-121.8001,-0.3776,-0.0508,,0.9103,,0.0,,-0.0508,-0.0075
297032,Na1Pt6Si10U3,c58730c160,NaU3(Si5Pt3)2,"['Na', 'Si', 'Pt', 'U']",20,346.3275,10.4929,m,Cm,8,monoclinic,-138.4203,-0.6272,-0.0407,,0.0001,,0.0,,-0.0405,-0.0218
298004,Au2Er1Na1Si2,c62ef15384,NaEr(SiAu)2,"['Na', 'Si', 'Er', 'Au']",6,117.2789,9.0667,mm2,Imm2,44,orthorhombic,-26.5483,-0.5433,-0.0767,,0.0222,,0.0,,-0.0767,-0.0216
298704,Bi2Na1Si4Sr9,c6a3fd93c7,NaSr9(Si2Bi)2,"['Na', 'Si', 'Sr', 'Bi']",16,544.7568,4.0903,4/m,I4/m,87,tetragonal,-55.0135,-0.5628,-0.0391,,0.0521,,0.0,,-0.0388,-0.0379
299363,Na4Se6Si2Sn1,c716526f04,Na4Si2SnSe6,"['Na', 'Si', 'Se', 'Sn']",13,334.8924,3.6722,2,C2,5,monoclinic,-54.7177,-1.0455,-0.0311,,1.6762,,0.0,,-0.0311,-0.0305
300059,Er3Ir19Na2P1Si11,c78d7afe73,Na2Er3Si11PIr19,"['Na', 'Si', 'P', 'Er', 'Ir']",36,563.6729,13.3739,mm2,Amm2,38,orthorhombic,-278.812,-0.8178,-0.0679,,0.003,,0.0,,-0.0679,-0.0616
300136,Li5Na3P12Rb12Si4,c79a412840,Rb12Na3Li5(SiP3)4,"['Li', 'Na', 'Si', 'P', 'Rb']",36,948.2309,2.8252,2,C2,5,monoclinic,-128.4218,-0.4578,-0.095,,1.2316,,-0.0,,-0.095,-0.0114
300497,Ba4Ge1Na8Si15,c7d7d49366,Ba4Na8Si15Ge,"['Na', 'Si', 'Ge', 'Ba']",28,744.6176,2.7366,m,Cm,8,monoclinic,-109.0198,-0.17,-0.0245,,0.9842,,0.0,,-0.0233,-0.0227
301353,Ga1Na3Pt4Si3,c872fc19aa,Na3GaSi3Pt4,"['Na', 'Si', 'Ga', 'Pt']",11,216.849,7.6827,3m,R3m,160,trigonal,-54.0491,-0.5904,-0.1112,,0.0159,,0.0,,-0.11,-0.0179
301551,Na8P12Rb12Si4,c893f9e248,Rb3Na2SiP3,"['Na', 'Si', 'P', 'Rb']",36,1018.2124,2.7619,mmm,Cmce,64,orthorhombic,-122.7835,-0.3827,-0.0726,,0.9791,,0.0,,-0.0726,-0.0051
302556,Ir19Na5Si12,c940e18b43,Na5Si12Ir19,"['Na', 'Si', 'Ir']",36,562.7747,12.1097,-6m2,P-62m,189,hexagonal,-259.7401,-0.5582,-0.0749,,0.004,,0.0,,-0.0743,-0.0652
302808,Na16P8Si1Sn1,c96bbdf9e8,Na16SiSnP8,"['Na', 'Si', 'P', 'Sn']",26,622.795,2.0328,-43m,F-43m,216,cubic,-83.6635,-0.3755,-0.0044,,0.5153,,0.0,,-0.0044,-0.0032
302875,In4Na4O16Si4,c976c68ebd,NaInSiO4,"['O', 'Na', 'Si', 'In']",28,351.7737,4.3408,mmm,Pnma,62,orthorhombic,-189.6884,-2.5901,-0.0095,,2.7208,,0.0,,-0.0095,-0.0094
304347,Dy2Na2Ni1Pt5Si10,ca664ad730,Na2Dy2Si10NiPt5,"['Na', 'Si', 'Ni', 'Dy', 'Pt']",20,337.5721,8.2933,2,C2,5,monoclinic,-116.1643,-0.6959,-0.0336,,0.007,,0.0,,-0.0331,-0.0143
304598,Ga2Na3Pt4Si2,ca91463567,Na3Ga2(SiPt2)2,"['Na', 'Si', 'Ga', 'Pt']",11,221.4186,7.8364,mm2,Fmm2,42,orthorhombic,-51.663,-0.5914,-0.1171,,0.0079,,0.0,,-0.1159,-0.0302
305348,B8Na6Pt16Rh2Si2,cb10ba8d42,Na3SiB4Pt8Rh,"['B', 'Na', 'Si', 'Rh', 'Pt']",34,503.6427,11.895,mmm,Cmcm,63,orthorhombic,-200.3915,-0.4796,-0.0198,,0.0048,,0.0,,-0.0196,-0.013
307158,Ca1Ir19Na4Si12,cc4b65ba47,Na4CaSi12Ir19,"['Na', 'Si', 'Ca', 'Ir']",36,564.713,12.1184,-6,P-6,174,hexagonal,-262.3897,-0.6128,-0.0919,,,,0.0,,-0.0914,-0.0723
308990,Na3Rb4Se20Si8Tl1,cd78d3159f,Rb4Na3Tl(Si2Se5)4,"['Na', 'Si', 'Se', 'Rb', 'Tl']",36,1169.0999,3.436,2,C2,5,monoclinic,-160.5999,-1.0286,-0.0157,,2.2615,,0.0,,-0.0157,-0.0156
309952,Na1Si16Tb7W12,ce1b5cc457,NaTb7(Si4W3)4,"['Na', 'Si', 'Tb', 'W']",36,608.9068,10.3381,1,P1,1,triclinic,-292.9518,-0.4691,-0.0326,,0.0029,,-0.0,,-0.0325,-0.0322
311194,Na4Pt4Si2,ceeed04cdc,Na2SiPt2,"['Na', 'Si', 'Pt']",10,203.676,7.5696,2/m,C2/c,15,monoclinic,-45.6641,-0.524,-0.0957,,0.0121,,0.0,,-0.094,-0.0553
311371,Na1Rh6Si14Th1,cf0f7def27,NaTh(Si7Rh3)2,"['Na', 'Si', 'Rh', 'Th']",22,341.2595,6.1586,-3,R-3,148,trigonal,-141.3497,-0.567,-0.0051,,0.0073,,0.0,,-0.0049,-0.0048
311439,Er7Na1Pt4Si12,cf1b31bf97,NaEr7(Si3Pt)4,"['Na', 'Si', 'Er', 'Pt']",24,466.6255,8.2245,6/mmm,P6/mmm,191,hexagonal,-143.4296,-0.8644,-0.0649,,0.0037,,-0.0,,-0.0648,-0.0026
311931,As3Na4P9Si12,cf67df7a29,Na4Si12(AsP3)3,"['Na', 'Si', 'P', 'As']",28,633.0207,2.4462,m,Pm,6,monoclinic,-139.909,-0.2435,-0.0457,,1.4394,,0.0,,-0.0457,-0.0196
312141,Ir19Na4Pa1Si12,cf8d16ee88,Na4PaSi12Ir19,"['Na', 'Si', 'Ir', 'Pa']",36,565.0499,12.6723,mm2,Amm2,38,orthorhombic,-271.1429,-0.6468,-0.075,,,,0.0,,-0.075,-0.0661
312465,Li8Na12P12Si2Sn2,cfc3a26bec,Na6Li4SiSnP6,"['Li', 'Na', 'Si', 'P', 'Sn']",36,715.6483,2.3126,222,C222_1,20,orthorhombic,-132.9062,-0.4982,-0.0269,,1.302,,0.0,,-0.0269,-0.0207
314239,Na4S6Si2Yb1,d0f652d2a2,Na4Yb(SiS3)2,"['Na', 'Si', 'S', 'Yb']",13,289.1607,2.9492,2,C2,5,monoclinic,-61.4675,-1.4591,-0.0986,,3.3037,,0.0,,-0.0986,-0.0452
316006,Mn2Na4O8Si2,d21bbe1c0e,Na2MnSiO4,"['O', 'Na', 'Si', 'Mn']",16,217.9293,2.9412,m,Pc,7,monoclinic,-114.6568,-2.538,-0.0183,,2.3486,,0.0,,-0.0183,-0.0049
316194,Na16P12Rb4Si4,d23b85332e,RbNa4SiP3,"['Na', 'Si', 'P', 'Rb']",36,899.1084,2.2047,mmm,Pnma,62,orthorhombic,-126.4782,-0.4093,-0.0305,,0.9607,,-0.0,,-0.0305,-0.0041
317958,Bi2Ca9Na1Si4,d366b8ad3d,NaCa9(Si2Bi)2,"['Na', 'Si', 'Ca', 'Bi']",16,460.2159,3.2979,4/m,I4/m,87,tetragonal,-58.4644,-0.6006,-0.0361,,0.0098,,-0.0,,-0.0358,-0.035
318139,Na1Pr3Pt6Si10,d388dfda2b,NaPr3(Si5Pt3)2,"['Na', 'Si', 'Pr', 'Pt']",20,357.7584,8.8053,m,Cm,8,monoclinic,-123.4456,-0.8551,-0.0211,,0.0046,,0.0,,-0.0209,-0.0026
319327,Bi4Na4O16Si4,d44ec77751,NaSiBiO4,"['O', 'Na', 'Si', 'Bi']",28,403.2747,5.3373,mmm,Pnma,62,orthorhombic,-191.1868,-2.481,-0.0133,,3.3612,,0.0,,-0.0133,-0.0131
320359,Cu1Na2Pd6Si3,d4fc522d61,Na2Cu(SiPd2)3,"['Na', 'Si', 'Cu', 'Pd']",12,199.3485,6.9329,m,Cm,8,monoclinic,-60.4205,-0.5267,-0.0093,,0.0057,,0.0,,-0.0086,-0.0086
321360,As12Hf1Li8Na12Si3,d5ad097370,Na12Li8Hf(SiAs4)3,"['Li', 'Na', 'Si', 'As', 'Hf']",36,763.2419,3.2487,2,C2,5,monoclinic,-133.8369,-0.5709,-0.0452,,,,0.0,,-0.0452,-0.0338
322782,Ir19Na3Sc2Si12,d69c20050a,Na3Sc2Si12Ir19,"['Na', 'Si', 'Sc', 'Ir']",36,558.2879,12.3377,mm2,Amm2,38,orthorhombic,-274.9642,-0.7027,-0.0874,,0.0055,,0.0,,-0.087,-0.077
324566,As4La2Na1Pd20Si2,d7d870599d,NaLa2Si2(AsPd5)4,"['Na', 'Si', 'As', 'Pd', 'La']",29,495.3894,9.3355,4/mmm,I4/mmm,139,tetragonal,-162.431,-0.6259,-0.0437,,,,0.0,,-0.0437,-0.0417
324797,Dy1Na1Pr2Pt6Si10,d804122a59,NaPr2Dy(Si5Pt3)2,"['Na', 'Si', 'Pr', 'Dy', 'Pt']",20,352.9609,9.0265,m,Cm,8,monoclinic,-123.1714,-0.8501,-0.0226,,0.0095,,0.0,,-0.0224,-0.0086
326805,Au2Na1Sc1Si2,d9538827aa,NaSc(SiAu)2,"['Na', 'Si', 'Sc', 'Au']",6,115.7412,7.4325,-6m2,P-6m2,187,hexagonal,-28.0171,-0.4939,-0.011,,0.015,,-0.0,,-0.011,-0.0028
326988,Ce1Ir6Na1Si14,d9712f3112,NaCe(Si7Ir3)2,"['Na', 'Si', 'Ce', 'Ir']",22,340.052,8.3483,-3,R-3,148,trigonal,-149.4494,-0.6004,-0.0278,,0.0125,,0.0,,-0.0276,-0.0274
327220,Ir19Na5P11Si1,d99ae64373,Na5SiP11Ir19,"['Na', 'Si', 'P', 'Ir']",36,546.6349,12.5637,mm2,Amm2,38,orthorhombic,-258.1753,-0.5184,-0.1001,,0.0066,,0.0,,-0.1001,-0.0658
327519,Ba2Na1Pt7Si2,d9c9697336,Ba2NaSi2Pt7,"['Na', 'Si', 'Ba', 'Pt']",12,238.9258,11.9499,-3m,R-3m,166,trigonal,-67.5142,-0.7506,-0.0619,,0.0384,,-0.0,,-0.0619,-0.0439
327939,Dy1Ir6Na1Si14,da121e1198,NaDy(Si7Ir3)2,"['Na', 'Si', 'Dy', 'Ir']",22,337.0078,8.534,-3,R-3,148,trigonal,-148.1318,-0.6008,-0.0412,,0.0171,,0.0,,-0.041,-0.04
328927,Na1P1Rh2Si1,dab2a372fa,NaSiPRh2,"['Na', 'Si', 'P', 'Rh']",5,80.3346,5.9502,4mm,I4mm,107,tetragonal,-30.3249,-0.687,-0.0312,,0.0113,,0.0,,-0.0312,-0.0081
330038,Hf1Na16P8Si1,db757a67ca,Na16HfSiP8,"['Na', 'Si', 'P', 'Hf']",26,603.5959,2.2619,-43m,F-43m,216,cubic,-91.4881,-0.4449,-0.0118,,,,0.0,,-0.0118,-0.0104
330312,Ir6Na1Pr1Si14,dba083e1ec,NaPr(Si7Ir3)2,"['Na', 'Si', 'Pr', 'Ir']",22,341.9563,8.3057,-3,R-3,148,trigonal,-147.808,-0.5782,-0.0441,,0.0045,,0.0,,-0.0439,-0.0112
330697,Li8Na12P12Si2Zr2,dbe474149d,Na6Li4ZrSiP6,"['Li', 'Na', 'Si', 'P', 'Zr']",36,720.8892,2.1692,222,C222_1,20,orthorhombic,-146.0023,-0.6099,-0.0108,,,,0.0,,-0.0108,-0.0076
332239,Lu2Na2O12Si4,dcf57b38bf,NaLu(SiO3)2,"['O', 'Na', 'Si', 'Lu']",20,249.9718,4.6517,2/m,C2/c,15,monoclinic,-160.024,-3.363,-0.0073,,4.8718,,0.0,,-0.0073,-0.0073
333660,Ba4Li3Na1Si8,dde857fb28,Ba4NaLi3Si8,"['Li', 'Na', 'Si', 'Ba']",16,408.0762,3.3278,m,Pm,6,monoclinic,-63.289,-0.3226,-0.0051,,,,0.0,,-0.0048,-0.0033
333723,Na6Pt12Sb2Si4,ddf2c33b61,Na3Si2SbPt6,"['Na', 'Si', 'Sb', 'Pt']",24,426.2189,11.0443,6/mmm,P6_3/mmc,194,hexagonal,-125.3065,-0.6056,-0.0371,,,,0.0,,-0.0371,-0.0313
334073,Na3Ni1Pt3Si4,de2c3f3d0e,Na3Si4NiPt3,"['Na', 'Si', 'Ni', 'Pt']",11,202.6589,6.762,3m,R3m,160,trigonal,-55.527,-0.5332,-0.0801,,0.0349,,0.0,,-0.0789,-0.0042
334103,Na1Rh6Si14Y1,de30210d72,NaY(Si7Rh3)2,"['Na', 'Si', 'Y', 'Rh']",22,335.9032,5.5492,-3,R-3,148,trigonal,-140.4093,-0.5673,-0.0081,,0.0111,,0.0,,-0.0079,-0.0076
334572,Na2O7Si2Sn2,de7d88f104,Na2Si2Sn2O7,"['O', 'Na', 'Si', 'Sn']",13,197.8139,3.7907,-3,P-3,147,trigonal,-88.97,-2.5239,-0.0123,,2.2168,,0.0,,-0.0123,-0.0122
334746,Ge1Na8Rb8Si15,de998eca89,Rb8Na8Si15Ge,"['Na', 'Si', 'Ge', 'Rb']",32,945.785,2.3906,1,P1,1,triclinic,-105.4519,-0.0342,-0.0128,,,,0.0,,-0.0128,-0.0126
334944,Na4O16Sc4Si4,debbdf339a,NaScSiO4,"['O', 'Na', 'Si', 'Sc']",28,337.3142,3.1512,mmm,Pnma,62,orthorhombic,-224.1124,-3.308,-0.0055,,4.4344,,-0.0,,-0.0055,-0.0055
335392,Ir19Na4Si12Yb1,df08d9cc2b,Na4YbSi12Ir19,"['Na', 'Si', 'Yb', 'Ir']",36,565.9243,12.4826,-6,P-6,174,hexagonal,-262.2973,-0.6232,-0.0928,,0.0038,,0.0,,-0.0923,-0.0736
335883,Na1Rh6Sb3Si1,df5a03af02,NaSi(SbRh2)3,"['Na', 'Si', 'Rh', 'Sb']",11,191.0701,8.9844,-6m2,P-6m2,187,hexagonal,-69.3618,-0.5492,-0.0448,,0.0161,,-0.0,,-0.0448,-0.0088
336023,Na1Pt4Si4Yb1,df752538b6,NaYb(SiPt)4,"['Na', 'Si', 'Yb', 'Pt']",10,174.744,10.3457,4mm,P4mm,99,tetragonal,-56.9177,-0.8071,-0.0664,,0.0013,,0.0,,-0.066,-0.0183
336474,Cd2Na4O8Si2,dfc370b58a,Na2CdSiO4,"['O', 'Na', 'Si', 'Cd']",16,229.4128,3.626,m,Pc,7,monoclinic,-95.6413,-2.3794,-0.0133,,2.4425,,0.0,,-0.0133,-0.013
338248,As12Na4Si12,e0f957f9ee,Na(SiAs)3,"['Na', 'Si', 'As']",28,679.4372,3.2457,mmm,Pbam,55,orthorhombic,-131.949,-0.2016,-0.0445,,1.3565,,0.0,,-0.0445,-0.022
339331,Na1Se2Si1Th2,e1a8b7d450,NaTh2SiSe2,"['Na', 'Si', 'Se', 'Th']",6,165.4336,6.756,-3m,P-3m1,164,trigonal,-37.1866,-1.4365,-0.0849,,0.0162,,0.0,,-0.0849,-0.0627
340301,Au20Ba3Na1Si8,e24bef7910,Ba3Na(Si2Au5)4,"['Na', 'Si', 'Ba', 'Au']",32,659.1479,11.5859,m,Pm,6,monoclinic,-126.7901,-0.3385,-0.0468,,0.0026,,0.0,,-0.0468,-0.0434
340357,Na2Pd1Pt5Si4,e255d822ae,Na2Si4PdPt5,"['Na', 'Si', 'Pd', 'Pt']",12,204.8166,10.0545,1,P1,1,triclinic,-67.8146,-0.6612,-0.0753,,0.0116,,0.0,,-0.0746,-0.0197
342146,Na1Rh6Si14Tm1,e384a540a8,NaTm(Si7Rh3)2,"['Na', 'Si', 'Rh', 'Tm']",22,334.2117,5.9749,-3,R-3,148,trigonal,-138.3963,-0.5663,-0.0139,,0.0121,,0.0,,-0.0137,-0.0135
342581,Na4Se6Si2Yb1,e3cf8f7192,Na4Yb(SiSe3)2,"['Na', 'Si', 'Se', 'Yb']",13,331.2592,3.9848,2,C2,5,monoclinic,-55.6419,-1.3066,-0.0378,,2.7254,,0.0,,-0.0378,-0.0372
342871,Ca4Ir10Na1Si10,e40124ddfb,NaCa4(SiIr)10,"['Na', 'Si', 'Ca', 'Ir']",25,412.7567,9.6003,4/m,I4/m,87,tetragonal,-173.5389,-0.8621,-0.0866,,,,0.0,,-0.0866,-0.0168
343440,B36C1Mg2Na1Si9,e467aa641c,NaMg2Si9B36C,"['B', 'C', 'Na', 'Mg', 'Si']",49,486.0456,2.4789,m,Cm,8,monoclinic,-308.3344,-0.1081,-0.0119,,,,0.0,,-0.0119,-0.0117
345225,Ge1Na12Pt8Si7,e58d944df2,Na12Si7GePt8,"['Na', 'Si', 'Ge', 'Pt']",28,599.2022,5.8357,m,Pm,6,monoclinic,-120.0194,-0.4636,-0.0821,,0.0009,,0.0,,-0.0803,-0.0119
346294,As4Na1Pd20Si2Yb2,e64ffb7bb0,NaYb2Si2(AsPd5)4,"['Na', 'Si', 'As', 'Pd', 'Yb']",29,483.6839,9.7958,4/mmm,I4/mmm,139,tetragonal,-154.8795,-0.5998,-0.0425,,,,0.0,,-0.0425,-0.0256
347563,Hf2Na4O22Si8,e72828904f,Na2HfSi4O11,"['O', 'Na', 'Si', 'Hf']",36,482.7346,3.528,2/m,C2/c,15,monoclinic,-293.9914,-3.2369,-0.0214,,4.6105,,-0.0,,-0.0214,-0.0082
347630,La2Na2Se8Si2,e73535d773,NaLaSiSe4,"['Na', 'Si', 'Se', 'La']",14,395.9316,4.2428,2,P2_1,4,monoclinic,-72.1137,-1.4842,-0.0189,,2.3099,,-0.0,,-0.0189,-0.0156
349143,Na1P5Pd20Si1Tm2,e82c3aebd7,NaTm2Si(PPd4)5,"['Na', 'Si', 'P', 'Pd', 'Tm']",29,455.4371,9.743,4mm,I4mm,107,tetragonal,-166.1896,-0.6835,-0.0392,,,,0.0,,-0.0392,-0.0311
349163,Ge1Li8Na12P12Si3,e82f5350e2,Na12Li8Si3GeP12,"['Li', 'Na', 'Si', 'P', 'Ge']",36,685.9003,2.082,2,C2,5,monoclinic,-136.0334,-0.5287,-0.0547,,,,0.0,,-0.055,-0.0433
349630,Ac9Na1Pb2Si4,e87e67add8,NaAc9(Si2Pb)2,"['Na', 'Si', 'Pb', 'Ac']",16,547.5558,7.8628,4/m,I4/m,87,tetragonal,-75.0697,-0.4704,-0.3233,,,,0.0,,-0.3233,-0.2072
350584,Na4O20Si4Ta4,e9181a3eba,NaTaSiO5,"['O', 'Na', 'Si', 'Ta']",32,404.3212,5.1258,-1,C2/c,15,monoclinic,-274.4269,-3.1577,-0.0139,,3.7604,,0.0,,-0.0139,-0.0139
350963,Ir19Na2P6Sc3Si6,e957d3d7a8,Na2Sc3Si6P6Ir19,"['Na', 'Si', 'P', 'Sc', 'Ir']",36,547.0896,12.7095,mm2,Amm2,38,orthorhombic,-282.0024,-0.7611,-0.1106,,,,0.0,,-0.1106,-0.0953
351065,As3Ir19Na5Si9,e967cff546,Na5Si9As3Ir19,"['Na', 'Si', 'As', 'Ir']",36,572.6044,12.3093,-6m2,P-62m,189,hexagonal,-255.8124,-0.5129,-0.0367,,0.0021,,0.0,,-0.0367,-0.0365
353519,Cs8Ge1Na8Si15,eb0b09c4a9,Cs8Na8Si15Ge,"['Na', 'Si', 'Ge', 'Cs']",32,1020.4191,2.8333,1,P1,1,triclinic,-105.1387,-0.0435,-0.0145,,1.3444,,0.0,,-0.0136,-0.0135
354378,As12Li8Na12Si3Sn1,eb94fb08d3,Na12Li8Si3SnAs12,"['Li', 'Na', 'Si', 'As', 'Sn']",36,768.9594,3.0954,2,C2,5,monoclinic,-126.1863,-0.5236,-0.0495,,0.8992,,0.0,,-0.0495,-0.0372
354960,Br18Na4Si1Zr6,ebf86988b7,Na4Zr6SiBr18,"['Na', 'Si', 'Br', 'Zr']",29,903.3338,3.8707,-1,P-1,2,triclinic,-142.6199,-1.7639,-0.0266,,1.4377,,0.0,,-0.0266,-0.0264
354977,Na2P5Pd20Si1Sr1,ebfb2abbb2,Na2SrSi(PPd4)5,"['Na', 'Si', 'P', 'Sr', 'Pd']",29,462.0977,8.7859,mm2,Imm2,44,orthorhombic,-156.8058,-0.5649,-0.0849,,,,0.0,,-0.0846,-0.0778
355220,Er1Na1Pr2Pt6Si10,ec2516d6e6,NaPr2Er(Si5Pt3)2,"['Na', 'Si', 'Pr', 'Er', 'Pt']",20,352.1551,9.0696,m,Cm,8,monoclinic,-123.0145,-0.8442,-0.0219,,0.01,,-0.0,,-0.0217,-0.0079
356113,Cs4Na4Se20Si8,ecbfb9c18d,CsNaSi2Se5,"['Na', 'Si', 'Se', 'Cs']",36,1200.5977,3.3574,mmm,Cmcm,63,orthorhombic,-160.5811,-1.0664,-0.0081,,2.4973,,0.0,,-0.0081,-0.0077
357611,Na5P6Rh19Si6,edbf3fbfc4,Na5Si6P6Rh19,"['Na', 'Si', 'P', 'Rh']",36,543.572,7.4065,-6m2,P-62m,189,hexagonal,-237.9223,-0.7321,-0.0481,,0.0003,,0.0,,-0.0479,-0.0459
357809,Cd2Na1Pt4Si2Sr1,eddf00957b,NaSrCd2(SiPt2)2,"['Na', 'Si', 'Sr', 'Cd', 'Pt']",10,200.8127,9.6909,4mm,P4mm,99,tetragonal,-46.6025,-0.6606,-0.0497,,,,0.0,,-0.0497,-0.0363
358523,Na3P4Pd20Si2,ee549b8b9b,Na3Si2(PPd5)4,"['Na', 'Si', 'P', 'Pd']",29,454.6004,8.6842,4/mmm,I4/mmm,139,tetragonal,-155.1536,-0.5197,-0.0815,,,,0.0,,-0.0815,-0.0647
359413,Na2Pt4Rh2Si4,eeea3c459b,NaSi2Pt2Rh,"['Na', 'Si', 'Rh', 'Pt']",12,198.364,9.5805,m,Cm,8,monoclinic,-71.7292,-0.6976,-0.0687,,0.0048,,0.0,,-0.068,-0.0308
359541,Na2Pd3Si1,eefeb7f8ec,Na2SiPd3,"['Na', 'Si', 'Pd']",6,104.6201,6.2429,-3m,R-3m,166,trigonal,-26.1565,-0.4244,-0.0199,,0.0118,,-0.0,,-0.0184,-0.0184
359880,Na16Se8Si4Te8,ef3a740c3c,Na4Si(TeSe)2,"['Na', 'Si', 'Se', 'Te']",36,1051.5226,3.3678,mmm,Pnma,62,orthorhombic,-132.8369,-1.0239,-0.0046,,2.0577,,0.0,,-0.0046,-0.0035
360539,Na1P2Pb2Pd20Si4,efa9501ad6,NaSi4P2(Pd10Pb)2,"['Na', 'Si', 'P', 'Pd', 'Pb']",29,464.4411,9.7967,4/mmm,I4/mmm,139,tetragonal,-160.569,-0.5412,-0.0324,,,,0.0,,-0.0324,-0.0225
361314,Ca1Na2Pd20Si6,f02af093ed,Na2Ca(Si3Pd10)2,"['Na', 'Si', 'Ca', 'Pd']",29,464.5791,8.5174,-43m,F-43m,216,cubic,-158.6119,-0.6142,-0.0403,,,,0.0,,-0.0399,-0.0394