Unnamed: 0,Composition,MaterialId,Reduced Formula,Elements,NSites,Volume,Density,Point Group,Space Group,Space Group Number,Crystal System,Corrected Energy,Formation Energy Per Atom,Decomposition Energy Per Atom,Dimensionality Cheon,Bandgap,Is Train,Decomposition Energy Per Atom All,Decomposition Energy Per Atom Relative,Decomposition Energy Per Atom MP,Decomposition Energy Per Atom MP OQMD
361334,Na8P12Rb12Si3V1,f02fd5bbf9,Rb12Na8V(SiP4)3,"['Na', 'Si', 'P', 'V', 'Rb']",36,1024.005,2.7834,2,C2,5,monoclinic,-126.7397,-0.3909,-0.0483,,,,0.0,,-0.0483,-0.0079
364091,Na1Pd20Pr2Si6,f204703633,NaPr2(Si3Pd10)2,"['Na', 'Si', 'Pd', 'Pr']",29,472.6977,9.1396,m-3m,Fm-3m,225,cubic,-168.0764,-0.7255,-0.0263,,,,-0.0,,-0.0263,-0.022
365109,Ge1Li4Na1Si7Sm3,f2b374dc43,NaLi4Sm3Si7Ge,"['Li', 'Na', 'Si', 'Ge', 'Sm']",16,314.8628,4.0665,m,Pm,6,monoclinic,-72.7325,-0.4386,-0.0099,,,,0.0,,-0.0098,-0.0097
366743,As1Na4P11Si12,f3c6fc360e,Na4Si12AsP11,"['Na', 'Si', 'P', 'As']",28,628.2679,2.2324,m,Pm,6,monoclinic,-141.5438,-0.248,-0.0484,,1.5625,,-0.0,,-0.0484,-0.0177
366767,As12Li8Na12Si3Ti1,f3cd231cd0,Na12Li8Ti(SiAs4)3,"['Li', 'Na', 'Si', 'Ti', 'As']",36,755.6747,2.9942,2,C2,5,monoclinic,-131.8118,-0.5719,-0.0547,,,,0.0,,-0.0547,-0.0453
366995,Ba6Na16Si1,f3f0393975,Ba6Na16Si,"['Na', 'Si', 'Ba']",23,1019.3658,1.9872,m-3m,Im-3m,229,cubic,-39.2389,-0.0495,-0.0044,,0.0018,,0.0,,-0.0021,-0.002
367135,Er4Na4O16Si4,f40a3100f2,NaErSiO4,"['O', 'Na', 'Si', 'Er']",28,369.1397,5.0802,mmm,Pnma,62,orthorhombic,-219.1192,-3.3818,-0.032,,4.3289,,0.0,,-0.032,-0.0318
367518,As9Na4P3Si12,f448f85c5c,Na4Si12(As3P)3,"['Na', 'Si', 'P', 'As']",28,665.7535,2.9836,m,Pm,6,monoclinic,-134.6189,-0.2162,-0.0455,,1.3045,,0.0,,-0.0455,-0.0181
368556,Cs8Na4Rb4Si15Sn1,f503b1ea83,Cs8Rb4Na4Si15Sn,"['Na', 'Si', 'Rb', 'Sn', 'Cs']",32,1190.8468,2.8405,m,Pm,6,monoclinic,-103.312,-0.0484,-0.0055,,,,0.0,,-0.0055,-0.0053
368844,Ir19Na1Nd4Si12,f53715e5e4,NaNd4Si12Ir19,"['Na', 'Si', 'Nd', 'Ir']",36,579.9586,13.1395,mm2,Amm2,38,orthorhombic,-284.5258,-0.8638,-0.0664,,0.0052,,0.0,,-0.0663,-0.064
371856,Dy4Ir19Na1P3Si9,f743b0bdf5,NaDy4Si9P3Ir19,"['Na', 'Si', 'P', 'Dy', 'Ir']",36,562.4453,13.7899,mm2,Amm2,38,orthorhombic,-285.3806,-0.9065,-0.1368,,0.0046,,0.0,,-0.1368,-0.1104
372969,Ir6Na1Si14Tb1,f801c63510,NaTb(Si7Ir3)2,"['Na', 'Si', 'Tb', 'Ir']",22,337.5667,8.5023,-3,R-3,148,trigonal,-148.1424,-0.6,-0.0319,,0.0089,,0.0,,-0.0317,-0.0316
374826,Li8Na12P12Si1Sn3,f93d3ad0a4,Na12Li8Si(SnP4)3,"['Li', 'Na', 'Si', 'P', 'Sn']",36,730.9375,2.4701,2,C2,5,monoclinic,-130.9911,-0.4843,-0.0214,,,,0.0,,-0.0214,-0.0182
375505,Na1Pr1Pt6Si10Sr2,f9b38f2ca8,NaSr2Pr(Si5Pt3)2,"['Na', 'Si', 'Sr', 'Pr', 'Pt']",20,360.7684,8.2413,m,Cm,8,monoclinic,-115.2802,-0.756,-0.0427,,0.002,,0.0,,-0.0425,-0.0191
377140,Al3Au1Lu2Na1Si2,fac0c0256f,NaLu2Al3Si2Au,"['Na', 'Al', 'Si', 'Lu', 'Au']",9,172.6201,6.8011,mm2,Amm2,38,orthorhombic,-40.3587,-0.5148,-0.005,,0.0029,,0.0,,-0.0045,-0.003
377291,Na1Nd3Pt6Si10,fada7a9e94,NaNd3(Si5Pt3)2,"['Na', 'Si', 'Nd', 'Pt']",20,355.0149,8.9201,m,Cm,8,monoclinic,-123.4893,-0.8592,-0.0302,,0.006,,0.0,,-0.0299,-0.0216
379719,Na3P12Si12Tl1,fc7cb85b21,Na3Tl(SiP)12,"['Na', 'Si', 'P', 'Tl']",28,641.7855,2.541,m,Pm,6,monoclinic,-142.6443,-0.2228,-0.0451,,,,0.0,,-0.0451,-0.0191
380050,Dy2Na1P4Pd20Si2,fcb8766d1b,NaDy2Si2(PPd5)4,"['Na', 'Si', 'P', 'Pd', 'Dy']",29,460.0241,9.589,4/mmm,I4/mmm,139,tetragonal,-166.8956,-0.6986,-0.0404,,,,0.0,,-0.0403,-0.0362
380422,Cu1Na1Rh5Si4,fcf8176603,NaCuSi4Rh5,"['Na', 'Si', 'Cu', 'Rh']",11,159.8294,7.4119,mm2,Amm2,38,orthorhombic,-71.3975,-0.6775,-0.0127,,0.012,,0.0,,-0.0123,-0.0123
380758,Cs4Na4Se8Si1Ti1,fd338a6246,Cs4Na4TiSiSe8,"['Na', 'Si', 'Ti', 'Se', 'Cs']",18,675.0017,3.2749,-42m,P-42m,111,tetragonal,-74.0937,-1.3297,-0.0089,,1.9005,,0.0,,-0.0089,-0.0074
381204,In4Na4Se12Si2,fd7d122e16,Na2In2SiSe6,"['Na', 'Si', 'Se', 'In']",22,663.1363,3.8936,m,Cc,9,monoclinic,-91.0558,-0.9981,-0.035,,1.6163,,0.0,,-0.035,-0.0272
381895,Hf2Na20P12Si1Sn1,fdf3e9bad3,Na20Hf2SiSnP12,"['Na', 'Si', 'P', 'Sn', 'Hf']",36,815.5566,2.7187,1,P1,1,triclinic,-138.2301,-0.4853,-0.0156,,1.2431,,0.0,,-0.0156,-0.0142
382085,Na2Pd4Pt2Si4,fe1164805a,NaSi2Pd2Pt,"['Na', 'Si', 'Pd', 'Pt']",12,203.924,7.9326,m,Cm,8,monoclinic,-65.0166,-0.6507,-0.0437,,0.0145,,0.0,,-0.0435,-0.0213
384336,Cd2Na4O20Si8,ff9b41200f,Na2Cd(Si2O5)2,"['O', 'Na', 'Si', 'Cd']",34,478.8991,2.987,-1,P-1,2,triclinic,-247.0428,-2.869,-0.0033,,3.5177,,0.0,,-0.0033,-0.0032